#LAMMPS datafile
773 atoms
772 bonds

21 atom types
772 bond types

-250.0 250.0 xlo xhi
-250.0 250.0 ylo yhi
-250.0 250.0 zlo zhi

Atoms

1   1   1   1   1   0.0   -39.839   -3.824   45.903
2   1   1   1   17   0.0   -42.95   -5.484   46.637
3   1   1   2   1   0.0   -37.387   -4.035   42.98
4   1   1   2   9   0.0   -35.577   -4.543   43.493
5   1   1   3   1   0.0   -39.49   -4.093   39.809
6   1   1   3   8   -1.0   -42.2   -1.917   39.485
7   1   1   4   1   0.0   -38.078   -5.917   36.753
8   1   1   4   20   0.0   -36.543   -8.756   38.901
9   1   1   5   1   0.0   -37.788   -3.953   33.49
10   1   1   5   15   0.0   -36.397   -1.996   33.57
11   1   1   6   1   0.0   -37.741   -5.698   30.059
12   1   1   6   4   1.0   -41.323   -8.735   30.37
13   1   1   7   1   0.0   -34.658   -4.614   28.06
14   1   1   7   21   0.0   -33.334   -3.48   28.969
15   1   1   8   1   0.0   -33.636   -5.772   24.536
16   1   1   8   10   0.0   -34.818   -6.308   23.078
17   1   1   9   1   0.0   -30.863   -4.923   22.02
18   1   1   9   8   -1.0   -27.759   -5.901   20.948
19   1   1   10   1   0.0   -33.161   -5.246   18.932
20   1   1   10   7   -1.0   -32.999   -5.584   16.437
21   1   1   11   1   0.0   -36.976   -5.495   18.31
22   1   1   11   8   -1.0   -38.738   -2.699   16.992
23   1   1   12   1   0.0   -36.331   -9.196   17.327
24   1   1   12   11   0.0   -36.367   -8.637   14.824
25   1   1   13   1   0.0   -34.31   -10.441   20.402
26   1   1   13   7   -1.0   -31.879   -10.237   19.682
27   1   1   14   1   0.0   -35.512   -12.002   23.7
28   1   1   14   8   -1.0   -35.556   -15.505   23.963
29   1   1   15   1   0.0   -35.904   -9.246   26.381
30   1   1   15   14   0.0   -37.701   -9.533   26.02
31   1   1   16   1   0.0   -33.652   -9.487   29.478
32   1   1   16   15   0.0   -31.254   -9.625   29.172
33   1   1   17   1   0.0   -35.274   -8.627   32.852
34   1   1   17   8   -1.0   -38.344   -10.251   33.393
35   1   1   18   1   0.0   -33.149   -5.945   34.654
36   1   1   18   15   0.0   -31.651   -4.699   33.209
37   1   1   19   1   0.0   -33.885   -5.022   38.346
38   1   1   19   14   0.0   -32.285   -5.929   38.607
39   1   1   20   1   0.0   -34.883   -1.491   39.425
40   1   1   20   9   0.0   -36.746   -1.064   40.005
41   1   1   21   1   0.0   -33.437   0.312   42.437
42   1   1   21   8   -1.0   -30.744   0.501   42.135
43   1   1   22   1   0.0   -35.664   1.008   45.506
44   1   1   22   7   -1.0   -34.074   1.875   47.368
45   1   1   23   1   0.0   -36.432   4.574   44.232
46   1   1   23   7   -1.0   -34.417   5.656   42.989
47   1   1   24   2   0.0   -37.821   3.007   40.981
48   1   1   25   1   0.0   -34.832   4.147   38.828
49   1   1   25   10   0.0   -33.68   5.531   39.642
50   1   1   26   1   0.0   -32.492   1.846   36.832
51   1   1   26   21   0.0   -33.16   0.538   35.512
52   1   1   27   1   0.0   -28.712   2.329   36.847
53   1   1   27   16   0.0   -27.805   2.288   39.316
54   1   1   28   1   0.0   -27.038   2.695   33.417
55   1   1   28   16   0.0   -26.164   4.195   31.424
56   1   1   29   1   0.0   -24.222   0.547   34.966
57   1   1   29   9   0.0   -24.162   0.884   36.898
58   1   1   30   1   0.0   -26.746   -2.344   35.362
59   1   1   30   10   0.0   -27.973   -2.563   36.883
60   1   1   31   1   0.0   -27.837   -1.843   31.698
61   1   1   31   21   0.0   -29.13   -0.607   30.849
62   1   1   32   1   0.0   -24.175   -1.695   30.437
63   1   1   32   10   0.0   -23.19   -0.051   30.939
64   1   1   33   1   0.0   -23.372   -4.87   32.447
65   1   1   33   3   0.0   -23.653   -5.019   33.947
66   1   1   34   1   0.0   -25.888   -6.746   30.177
67   1   1   34   12   0.0   -27.196   -8.189   32.041
68   1   1   35   1   0.0   -25.427   -4.566   27.016
69   1   1   35   18   0.0   -28.75   -5.376   26.627
70   1   1   36   1   0.0   -21.784   -3.332   26.563
71   1   1   36   14   0.0   -21.498   -5.171   26.532
72   1   1   37   2   0.0   -21.858   0.194   25.013
73   1   1   38   1   0.0   -25.481   1.03   26.016
74   1   1   38   3   0.0   -26.321   0.2   26.994
75   1   1   39   1   0.0   -25.789   4.877   26.18
76   1   1   39   13   0.0   -25.266   6.967   25.156
77   1   1   40   2   0.0   -29.478   4.747   27.305
78   1   1   41   1   0.0   -32.964   3.235   26.797
79   1   1   41   16   0.0   -33.054   1.401   28.695
80   1   1   42   1   0.0   -35.957   3.942   24.486
81   1   1   42   4   1.0   -34.22   2.788   20.175
82   1   1   43   1   0.0   -39.465   2.372   24.552
83   1   1   43   20   0.0   -41.449   4.765   26.929
84   1   1   44   1   0.0   -42.356   2.261   22.061
85   1   1   44   4   1.0   -42.878   0.62   17.736
86   1   1   45   1   0.0   -45.317   4.308   23.349
87   1   1   45   11   0.0   -46.787   6.357   23.823
88   1   1   46   1   0.0   -48.442   2.029   22.984
89   1   1   46   14   0.0   -48.246   1.935   24.843
90   1   1   47   1   0.0   -50.685   5.101   22.283
91   1   1   47   21   0.0   -51.583   6.272   23.605
92   1   1   48   1   0.0   -48.525   7.087   19.789
93   1   1   48   9   0.0   -47.099   8.266   20.531
94   1   1   49   1   0.0   -46.438   4.169   18.276
95   1   1   49   12   0.0   -47.778   1.887   17.76
96   1   1   50   1   0.0   -43.339   6.49   18.359
97   1   1   50   13   0.0   -44.217   8.578   17.673
98   1   1   51   1   0.0   -40.108   5.631   20.189
99   1   1   51   17   0.0   -38.971   3.191   19.497
100   1   1   52   1   0.0   -39.677   7.66   23.433
101   1   1   52   4   1.0   -43.986   8.956   25.125
102   1   1   53   2   0.0   -36.287   8.035   25.148
103   1   1   54   1   0.0   -35.932   7.182   28.854
104   1   1   54   21   0.0   -35.82   5.446   29.783
105   1   1   55   1   0.0   -34.564   10.148   30.886
106   1   1   55   4   1.0   -36.075   13.862   32.805
107   1   1   56   1   0.0   -30.854   9.648   31.732
108   1   1   56   16   0.0   -28.596   8.497   30.965
109   1   1   57   1   0.0   -29.259   11.841   34.492
110   1   1   57   21   0.0   -30.4   13.121   35.487
111   1   1   58   1   0.0   -25.69   11.159   35.838
112   1   1   58   8   -1.0   -25.301   13.76   38.139
113   1   1   59   2   0.0   -25.919   7.411   34.897
114   1   1   60   1   0.0   -29.457   6.988   36.418
115   1   1   60   15   0.0   -29.58   7.694   38.729
116   1   1   61   1   0.0   -32.418   6.084   34.134
117   1   1   61   16   0.0   -31.537   4.58   32.116
118   1   1   62   1   0.0   -35.653   7.564   35.529
119   1   1   62   6   0.0   -34.351   10.029   37.096
120   1   1   63   1   0.0   -38.939   5.707   34.976
121   1   1   63   3   0.0   -39.739   5.084   36.126
122   1   1   64   1   0.0   -41.561   7.313   32.644
123   1   1   64   14   0.0   -41.245   5.731   31.689
124   1   1   65   1   0.0   -44.484   9.2   34.36
125   1   1   65   7   -1.0   -44.258   11.518   33.232
126   1   1   66   1   0.0   -46.459   5.862   34.158
127   1   1   66   3   0.0   -47.056   5.499   32.791
128   1   1   67   2   0.0   -43.686   3.726   35.807
129   1   1   68   1   0.0   -41.76   0.974   33.954
130   1   1   68   3   0.0   -38.09   1.675   34.591
131   1   1   69   2   0.0   -44.853   -1.267   33.546
132   1   1   70   1   0.0   -45.121   -4.146   31.021
133   1   1   70   11   0.0   -46.655   -5.767   32.289
134   1   1   71   1   0.0   -43.205   -2.119   28.347
135   1   1   71   16   0.0   -44.277   0.292   28.22
136   1   1   72   1   0.0   -40.216   -3.365   26.295
137   1   1   72   21   0.0   -40.116   -4.944   25.121
138   1   1   73   1   0.0   -37.209   -1.015   26.365
139   1   1   73   20   0.0   -38.928   0.664   29.377
140   1   1   74   1   0.0   -34.774   -1.101   23.401
141   1   1   74   21   0.0   -35.268   -1.243   21.49
142   1   1   75   1   0.0   -31.117   -0.171   24.081
143   1   1   75   21   0.0   -29.599   -1.243   24.756
144   1   1   76   1   0.0   -29.672   3.009   22.552
145   1   1   76   11   0.0   -31.493   4.824   22.515
146   1   1   77   1   0.0   -26.118   2.527   21.361
147   1   1   77   20   0.0   -25.944   -1.227   21.691
148   1   1   78   1   0.0   -24.223   5.751   20.518
149   1   1   78   14   0.0   -22.895   4.891   21.499
150   1   0   79   1   0.0   -25.062   6.215   16.825
151   1   0   79   5   1.0   -28.737   5.885   15.618
152   1   0   80   1   0.0   -21.631   6.969   15.435
153   1   0   80   7   -1.0   -19.628   5.68   16.204
154   1   0   81   1   0.0   -22.387   9.709   12.901
155   1   0   81   11   0.0   -23.605   11.869   12.439
156   1   0   82   1   0.0   -20.441   7.501   10.372
157   1   0   82   5   1.0   -21.59   4.591   8.049
158   1   0   83   1   0.0   -17.041   9.112   10.494
159   1   0   83   4   1.0   -17.065   13.891   10.606
160   1   0   84   1   0.0   -15.35   5.758   11.242
161   1   0   84   5   1.0   -14.998   2.67   9.045
162   1   0   85   1   0.0   -13.427   5.987   14.508
163   1   0   85   17   0.0   -12.553   8.52   16.734
164   1   0   86   1   0.0   -12.754   2.285   15.233
165   1   0   86   7   -1.0   -13.244   0.396   13.434
166   1   0   87   1   0.0   -11.711   2.62   18.911
167   1   0   87   8   -1.0   -12.126   4.673   21.714
168   1   0   88   1   0.0   -10.015   -0.817   19.182
169   1   0   88   10   0.0   -9.454   -1.959   17.677
170   1   0   89   1   0.0   -9.164   -1.372   22.872
171   1   0   89   7   -1.0   -11.351   -1.775   24.007
172   1   0   90   1   0.0   -5.495   -1.016   23.802
173   1   0   90   3   0.0   -4.83   0.369   23.786
174   1   0   91   1   0.0   -4.412   -3.988   25.94
175   1   0   91   9   0.0   -4.063   -3.087   27.649
176   1   0   92   1   0.0   -3.484   -7.449   24.664
177   1   0   92   9   0.0   -5.218   -8.432   24.861
178   1   0   93   1   0.0   -0.587   -8.111   22.259
179   1   0   93   3   0.0   0.161   -9.176   23.074
180   1   0   94   1   0.0   -0.563   -8.261   18.454
181   1   0   94   21   0.0   1.393   -8.332   18.053
182   1   0   95   1   0.0   -3.654   -9.517   16.618
183   1   0   95   5   1.0   -5.501   -12.383   18.483
184   1   0   96   1   0.0   -3.476   -7.771   13.221
185   1   0   96   21   0.0   -1.981   -7.446   11.97
186   1   0   97   1   0.0   -7.238   -7.77   12.51
187   1   0   97   5   1.0   -10.702   -7.353   14.427
188   1   0   98   1   0.0   -6.666   -7.459   8.712
189   1   0   98   4   1.0   -3.15   -10.148   6.994
190   1   0   99   1   0.0   -9.704   -5.621   7.421
191   1   0   99   3   0.0   -9.812   -4.101   7.245
192   1   0   100   1   0.0   -10.413   -7.928   4.43
193   1   0   100   21   0.0   -11.392   -9.632   4.284
194   1   0   101   1   0.0   -9.04   -5.492   1.834
195   1   0   101   12   0.0   -6.131   -3.981   2.998
196   1   0   102   1   0.0   -11.21   -6.573   -1.105
197   1   0   102   5   1.0   -14.995   -5.958   -0.32
198   1   0   103   1   0.0   -8.9   -7.471   -4.001
199   1   0   103   10   0.0   -8.443   -9.383   -4.208
200   1   2   104   1   0.0   -9.419   -5.018   -6.847
201   1   2   104   9   0.0   -9.716   -3.33   -5.924
202   1   2   105   1   0.0   -8.895   -5.696   -10.551
203   1   2   105   7   -1.0   -11.327   -6.36   -10.902
204   1   2   106   1   0.0   -5.59   -3.987   -11.494
205   1   2   106   16   0.0   -3.712   -4.301   -9.719
206   1   2   107   1   0.0   -5.353   -2.361   -14.934
207   1   2   107   15   0.0   -6.181   -0.443   -16.161
208   1   2   108   1   0.0   -2.06   -3.26   -16.675
209   1   2   108   21   0.0   -1.25   -5.049   -16.622
210   1   2   109   1   0.0   -1.058   -0.438   -19.073
211   1   2   109   16   0.0   -2.426   1.703   -18.375
212   1   2   110   2   0.0   1.598   -0.455   -21.83
213   1   2   111   1   0.0   1.158   -4.12   -22.892
214   1   2   111   16   0.0   -0.39   -5.566   -21.361
215   1   2   112   1   0.0   2.676   -5.359   -26.2
216   1   2   112   14   0.0   3.824   -6.226   -24.995
217   1   2   113   1   0.0   -0.082   -5.954   -28.808
218   1   2   113   3   0.0   0.111   -2.219   -30.755
219   1   2   114   1   0.0   1.168   -9.59   -29.186
220   1   2   114   5   1.0   5.043   -9.876   -28.748
221   1   2   115   1   0.0   0.743   -10.403   -25.436
222   1   2   115   10   0.0   1.618   -9.396   -23.983
223   1   2   116   1   0.0   -2.063   -12.874   -24.64
224   1   2   116   10   0.0   -1.53   -14.675   -25.265
225   1   2   117   1   0.0   -4.152   -13.461   -21.485
226   1   2   117   8   -1.0   -7.532   -12.944   -22.114
227   1   2   118   1   0.0   -2.019   -16.603   -20.907
228   1   2   118   12   0.0   -1.91   -19.321   -20.515
229   1   2   119   1   0.0   1.374   -14.751   -21.047
230   1   2   119   7   -1.0   1.765   -14.611   -23.594
231   1   2   120   1   0.0   0.002   -12.251   -18.475
232   1   2   120   16   0.0   -1.162   -10.01   -19.236
233   1   2   121   1   0.0   -1.356   -15.088   -16.264
234   1   2   121   5   1.0   -3.869   -17.924   -15.462
235   1   2   122   1   0.0   2.027   -16.905   -16.327
236   1   2   122   8   -1.0   2.378   -19.071   -19.027
237   1   2   123   1   0.0   3.941   -13.653   -15.617
238   1   2   123   20   0.0   5.72   -10.263   -15.473
239   1   2   124   1   0.0   1.615   -12.475   -12.771
240   1   2   124   18   0.0   0.651   -9.404   -13.905
241   1   2   125   1   0.0   1.412   -16.011   -11.218
242   1   2   125   9   0.0   0.455   -17.372   -12.266
243   1   2   126   1   0.0   5.08   -15.395   -10.138
244   1   2   126   10   0.0   6.23   -14.567   -11.525
245   1   2   127   1   0.0   3.831   -12.81   -7.534
246   1   2   127   18   0.0   5.242   -10.334   -9.425
247   1   2   128   2   0.0   0.816   -14.854   -6.244
248   1   2   129   1   0.0   -2.411   -16.623   -7.302
249   1   2   129   8   -1.0   -4.854   -18.891   -6.254
250   1   2   130   1   0.0   -4.264   -14.916   -10.2
251   1   2   130   21   0.0   -3.334   -14.159   -11.767
252   1   2   131   1   0.0   -8.083   -15.329   -10.016
253   1   2   131   16   0.0   -9.112   -14.882   -7.619
254   1   2   132   1   0.0   -8.703   -13.587   -13.388
255   1   2   132   17   0.0   -11.601   -11.768   -14.473
256   1   2   133   1   0.0   -6.859   -12.115   -16.399
257   1   2   133   21   0.0   -5.001   -12.545   -16.885
258   1   2   134   1   0.0   -8.552   -10.204   -19.249
259   1   2   134   12   0.0   -11.88   -9.343   -19.459
260   1   2   135   1   0.0   -6.794   -8.441   -22.201
261   1   2   135   21   0.0   -5.175   -8.923   -23.224
262   1   2   136   1   0.0   -8.962   -5.705   -23.744
263   1   2   136   5   1.0   -11.336   -5.133   -21.507
264   1   2   137   1   0.0   -8.922   -6.275   -27.521
265   1   2   137   5   1.0   -7.389   -9.859   -27.751
266   1   2   138   1   0.0   -10.683   -4.028   -30.046
267   1   2   138   7   -1.0   -11.023   -2.139   -31.571
268   1   2   139   1   0.0   -14.006   -5.607   -31.104
269   1   2   139   16   0.0   -15.699   -5.45   -29.035
270   1   2   140   1   0.0   -13.717   -4.363   -34.756
271   1   2   140   5   1.0   -15.445   -0.877   -35.058
272   1   2   141   1   0.0   -10.088   -5.345   -35.529
273   1   2   141   10   0.0   -9.127   -3.648   -35.223
274   1   2   142   2   0.0   -9.285   -8.091   -32.942
275   1   2   143   1   0.0   -6.071   -6.137   -32.064
276   1   2   143   6   0.0   -4.943   -5.567   -35.037
277   1   2   144   1   0.0   -5.053   -5.786   -28.373
278   1   2   144   9   0.0   -3.917   -7.307   -27.875
279   1   2   145   1   0.0   -5.659   -2.199   -27.023
280   1   2   145   5   1.0   -9.426   -1.4   -27.251
281   1   2   146   2   0.0   -2.275   -2.381   -25.164
282   1   2   147   1   0.0   -4.035   -2.882   -21.784
283   1   2   147   18   0.0   -7.08   -1.157   -21.848
284   1   2   148   2   0.0   -5.591   -5.656   -19.665
285   1   2   149   1   0.0   -7.003   -6.428   -16.206
286   1   2   149   18   0.0   -9.411   -4.052   -16.704
287   1   2   150   1   0.0   -5.528   -8.788   -13.552
288   1   2   150   21   0.0   -3.586   -8.947   -13.125
289   1   2   151   1   0.0   -7.201   -9.862   -10.259
290   1   2   151   4   1.0   -11.44   -10.514   -8.167
291   1   2   152   1   0.0   -5.281   -11.506   -7.392
292   1   2   152   18   0.0   -2.334   -10.343   -8.528
293   1   2   153   1   0.0   -6.567   -13.719   -4.546
294   1   2   153   10   0.0   -6.363   -15.594   -3.931
295   1   2   154   1   0.0   -4.339   -11.773   -2.069
296   1   2   154   8   -1.0   -1.971   -13.899   -0.669
297   1   2   155   1   0.0   -4.293   -8.0   -1.449
298   1   2   155   20   0.0   -4.824   -4.312   -0.334
299   1   2   156   1   0.0   -0.584   -8.202   -0.411
300   1   2   156   8   -1.0   -0.03   -9.377   2.823
301   1   2   157   1   0.0   0.284   -9.514   -3.929
302   1   2   157   10   0.0   0.083   -11.292   -4.719
303   1   2   158   1   0.0   -1.884   -6.693   -5.394
304   1   2   158   12   0.0   -4.948   -5.124   -5.25
305   1   2   159   1   0.0   0.148   -4.009   -3.48
306   1   2   159   21   0.0   -0.019   -3.256   -1.661
307   1   2   160   1   0.0   3.532   -5.666   -4.378
308   1   2   160   5   1.0   4.257   -8.583   -1.875
309   1   2   161   1   0.0   2.462   -5.624   -8.097
310   1   2   161   21   0.0   1.374   -6.943   -9.105
311   1   2   162   1   0.0   1.349   -1.932   -7.858
312   1   2   162   17   0.0   -1.784   -1.076   -6.758
313   1   2   163   1   0.0   4.69   -0.802   -6.275
314   1   2   163   9   0.0   4.551   -1.016   -4.332
315   1   2   164   1   0.0   6.905   -2.212   -9.106
316   1   2   164   12   0.0   6.99   -5.674   -8.931
317   1   2   165   1   0.0   7.245   -1.726   -12.896
318   1   2   165   4   1.0   7.926   1.894   -15.115
319   1   2   166   1   0.0   6.77   -4.886   -14.966
320   1   2   166   6   0.0   4.782   -5.907   -12.737
321   1   2   167   1   0.0   8.738   -5.95   -18.083
322   1   2   167   17   0.0   11.994   -6.183   -19.163
323   1   2   168   1   0.0   6.485   -8.064   -20.367
324   1   2   168   15   0.0   4.305   -8.162   -19.328
325   1   2   169   1   0.0   7.827   -9.289   -23.766
326   1   2   169   7   -1.0   5.712   -10.503   -24.653
327   1   2   170   2   0.0   10.596   -6.599   -23.514
328   1   2   171   1   0.0   8.092   -3.702   -22.947
329   1   2   171   4   1.0   4.846   -1.245   -25.409
330   1   2   172   1   0.0   7.707   -1.714   -19.713
331   1   2   172   3   0.0   11.056   -1.355   -18.047
332   1   2   173   1   0.0   4.182   -2.103   -18.298
333   1   2   173   13   0.0   3.894   -3.942   -19.745
334   1   2   174   1   0.0   2.54   -0.187   -15.41
335   1   2   174   7   -1.0   3.844   1.938   -16.07
336   1   2   175   1   0.0   0.048   -1.817   -12.97
337   1   2   175   13   0.0   0.687   -4.043   -13.127
338   1   2   176   1   0.0   -2.541   0.426   -11.215
339   1   2   176   5   1.0   -3.278   3.299   -13.759
340   1   2   177   1   0.0   -6.094   0.629   -9.845
341   1   2   177   16   0.0   -6.418   0.347   -7.237
342   1   2   178   1   0.0   -8.713   1.51   -12.557
343   1   2   178   14   0.0   -9.123   -0.289   -12.335
344   1   0   179   1   0.0   -10.609   4.809   -11.912
345   1   0   179   11   0.0   -9.472   6.999   -12.566
346   1   0   180   1   0.0   -14.012   2.976   -12.266
347   1   0   180   9   0.0   -14.114   2.251   -14.085
348   1   0   181   1   0.0   -13.843   1.852   -8.552
349   1   0   181   5   1.0   -13.837   -2.063   -8.673
350   1   0   182   1   0.0   -12.452   5.174   -7.21
351   1   0   182   12   0.0   -9.387   6.798   -7.338
352   1   0   183   1   0.0   -15.436   7.028   -5.642
353   1   0   183   9   0.0   -15.623   6.345   -3.8
354   1   0   184   1   0.0   -16.096   10.27   -7.606
355   1   0   184   12   0.0   -17.625   9.637   -10.692
356   1   0   185   1   0.0   -16.416   12.369   -4.357
357   1   0   185   7   -1.0   -18.927   12.072   -4.452
358   1   0   186   1   0.0   -12.849   12.22   -2.908
359   1   0   186   8   -1.0   -11.969   11.202   -0.343
360   1   0   187   1   0.0   -10.613   15.04   -4.301
361   1   0   187   14   0.0   -10.727   15.629   -2.536
362   1   0   188   1   0.0   -8.192   12.855   -6.331
363   1   0   188   16   0.0   -8.877   12.511   -8.906
364   1   0   189   1   0.0   -5.453   12.405   -3.688
365   1   0   189   4   1.0   -7.392   11.124   0.493
366   1   0   190   1   0.0   -2.562   13.139   -5.99
367   1   0   190   9   0.0   -2.412   15.079   -6.341
368   1   3   191   1   0.0   0.522   11.228   -4.831
369   1   3   191   4   1.0   0.248   6.884   -5.284
370   1   3   192   1   0.0   2.088   13.569   -7.457
371   1   3   192   5   1.0   3.608   13.377   -10.727
372   1   3   193   1   0.0   2.913   17.074   -6.154
373   1   3   193   21   0.0   3.308   17.148   -4.223
374   1   3   194   1   0.0   3.8   20.22   -8.156
375   1   3   194   18   0.0   3.445   23.043   -10.119
376   1   3   195   1   0.0   7.015   21.997   -7.049
377   1   3   195   21   0.0   8.544   21.034   -6.26
378   1   3   196   2   0.0   6.95   25.614   -8.32
379   1   3   197   1   0.0   9.725   28.295   -8.125
380   1   3   197   4   1.0   7.217   31.255   -5.238
381   1   3   198   1   0.0   12.563   25.752   -8.552
382   1   3   198   13   0.0   12.0   24.038   -10.11
383   1   3   199   1   0.0   15.779   27.114   -10.206
384   1   3   199   10   0.0   17.019   27.942   -8.936
385   1   3   200   1   0.0   17.759   25.463   -13.045
386   1   3   200   8   -1.0   18.733   26.1   -16.348
387   1   3   201   1   0.0   20.454   24.556   -10.421
388   1   3   201   7   -1.0   21.256   26.932   -9.983
389   1   3   202   1   0.0   17.975   22.072   -8.808
390   1   3   202   17   0.0   15.679   23.656   -6.819
391   1   3   203   1   0.0   18.533   18.488   -10.053
392   1   3   203   10   0.0   20.355   17.882   -9.641
393   1   3   204   1   0.0   16.116   15.51   -9.95
394   1   3   204   8   -1.0   16.491   13.424   -12.771
395   1   3   205   1   0.0   18.436   13.773   -7.414
396   1   3   205   7   -1.0   20.034   12.418   -8.835
397   1   3   206   1   0.0   18.451   16.867   -5.11
398   1   3   206   8   -1.0   20.672   19.308   -6.13
399   1   3   207   1   0.0   14.636   17.114   -5.167
400   1   3   207   16   0.0   13.421   18.635   -6.974
401   1   3   208   1   0.0   14.539   13.322   -4.495
402   1   3   208   4   1.0   15.594   8.876   -5.706
403   1   3   209   1   0.0   17.047   13.465   -1.566
404   1   3   209   8   -1.0   20.447   13.828   -0.815
405   1   3   210   1   0.0   15.329   16.539   -0.039
406   1   3   210   18   0.0   14.231   19.617   0.811
407   1   3   211   1   0.0   11.813   14.988   -0.357
408   1   3   211   18   0.0   10.174   17.325   -2.182
409   1   3   212   1   0.0   13.056   11.598   1.016
410   1   3   212   9   0.0   14.258   10.635   -0.214
411   1   3   213   1   0.0   13.218   13.289   4.493
412   1   3   213   12   0.0   13.944   16.692   4.725
413   1   3   214   1   0.0   9.363   13.617   4.421
414   1   3   214   20   0.0   9.673   17.542   4.333
415   1   3   215   2   0.0   8.585   10.214   2.793
416   1   3   216   1   0.0   9.381   7.612   0.108
417   1   3   216   7   -1.0   9.572   5.307   1.229
418   1   3   217   1   0.0   9.816   9.33   -3.309
419   1   3   217   21   0.0   10.738   11.04   -3.656
420   1   3   218   1   0.0   8.764   7.08   -6.254
421   1   3   218   17   0.0   5.804   5.331   -6.099
422   1   3   219   1   0.0   9.428   9.445   -9.236
423   1   3   219   7   -1.0   8.406   9.805   -11.593
424   1   3   220   1   0.0   10.844   12.973   -9.882
425   1   3   220   21   0.0   12.118   13.861   -8.674
426   1   3   221   1   0.0   10.135   14.695   -13.22
427   1   3   221   18   0.0   8.603   14.848   -16.242
428   1   3   222   1   0.0   11.706   18.007   -14.338
429   1   3   222   15   0.0   13.594   18.787   -13.045
430   1   3   223   1   0.0   10.344   19.051   -17.806
431   1   3   223   14   0.0   9.078   19.905   -16.746
432   1   3   224   1   0.0   12.868   20.262   -20.451
433   1   3   224   5   1.0   16.048   18.3   -19.312
434   1   3   225   1   0.0   13.286   23.077   -21.534
435   1   3   225   14   0.0   12.252   23.723   -22.933
436   1   3   226   1   0.0   13.396   24.298   -17.906
437   1   3   226   18   0.0   14.339   25.151   -14.797
438   1   3   227   1   0.0   10.141   26.041   -16.725
439   1   3   227   4   1.0   6.707   25.189   -19.524
440   1   3   228   1   0.0   10.732   26.868   -12.994
441   1   3   228   3   0.0   10.627   28.392   -12.837
442   1   3   229   1   0.0   8.634   23.837   -11.949
443   1   3   229   18   0.0   6.348   23.412   -14.561
444   1   3   230   1   0.0   9.105   20.108   -11.236
445   1   3   230   3   0.0   10.355   19.795   -10.406
446   1   3   231   1   0.0   6.816   17.191   -10.267
447   1   3   231   18   0.0   4.431   18.06   -12.648
448   1   3   232   1   0.0   7.492   14.792   -7.35
449   1   3   232   21   0.0   8.651   15.376   -5.879
450   1   3   233   1   0.0   5.608   11.491   -6.796
451   1   3   233   10   0.0   5.099   10.508   -8.424
452   1   3   234   1   0.0   5.391   10.049   -3.271
453   1   3   234   18   0.0   6.218   12.915   -1.674
454   1   3   235   1   0.0   4.552   6.444   -2.343
455   1   3   235   3   0.0   5.49   5.551   -1.524
456   1   3   236   1   0.0   1.974   7.796   0.181
457   1   3   236   7   -1.0   1.381   7.678   2.64
458   1   3   237   1   0.0   -0.939   10.224   -0.536
459   1   3   237   7   -1.0   -3.218   9.028   -0.059
460   1   3   238   1   0.0   -0.916   11.701   3.024
461   1   3   238   12   0.0   -2.24   9.766   5.547
462   1   3   239   1   0.0   2.723   12.927   2.681
463   1   3   239   15   0.0   4.545   11.397   3.037
464   1   3   240   1   0.0   1.846   14.454   -0.714
465   1   3   240   3   0.0   1.325   13.608   -1.882
466   1   3   241   1   0.0   -1.145   16.272   0.943
467   1   3   241   12   0.0   -4.277   14.765   0.989
468   1   3   242   1   0.0   0.754   17.519   4.07
469   1   3   242   9   0.0   0.965   16.128   5.438
470   1   3   243   1   0.0   3.364   19.191   1.797
471   1   3   243   16   0.0   5.534   17.698   1.704
472   1   3   244   1   0.0   0.659   20.923   -0.366
473   1   3   244   13   0.0   -0.245   19.394   -1.886
474   1   3   245   2   0.0   0.621   24.689   0.366
475   1   3   246   1   0.0   4.02   24.654   2.168
476   1   3   246   8   -1.0   4.475   22.362   4.752
477   1   3   247   1   0.0   6.847   26.961   0.994
478   1   3   247   7   -1.0   6.037   29.311   0.091
479   1   3   248   1   0.0   9.991   24.783   1.462
480   1   3   248   16   0.0   9.155   22.352   1.86
481   1   3   249   1   0.0   13.584   26.13   1.414
482   1   3   249   15   0.0   13.906   28.071   2.808
483   1   3   250   1   0.0   15.929   23.945   -0.703
484   1   3   250   15   0.0   14.821   22.213   -1.972
485   1   3   251   1   0.0   19.581   25.249   -0.716
486   1   3   251   5   1.0   21.308   22.963   -3.429
487   1   3   252   2   0.0   18.262   28.725   0.383
488   1   3   253   1   0.0   15.725   28.813   -2.537
489   1   3   253   15   0.0   16.704   28.254   -4.669
490   1   3   254   1   0.0   12.005   29.078   -1.619
491   1   3   254   9   0.0   10.54   30.269   -0.998
492   1   3   255   1   0.0   10.074   26.438   -3.618
493   1   3   255   21   0.0   11.159   24.797   -3.879
494   1   3   256   1   0.0   6.265   26.577   -3.486
495   1   3   256   6   0.0   3.3   27.649   -3.786
496   1   3   257   1   0.0   4.504   23.194   -3.194
497   1   3   257   15   0.0   5.803   21.608   -1.968
498   1   3   258   1   0.0   0.994   22.572   -4.621
499   1   3   258   9   0.0   -0.084   23.856   -5.646
500   1   3   259   1   0.0   -1.334   19.694   -5.605
501   1   3   259   11   0.0   -3.132   19.555   -3.829
502   1   0   260   1   0.0   -0.316   18.356   -9.026
503   1   0   260   3   0.0   0.738   17.309   -9.375
504   1   0   261   1   0.0   -3.433   18.688   -11.151
505   1   0   261   8   -1.0   -4.932   21.735   -11.867
506   1   0   262   1   0.0   -3.425   15.403   -13.117
507   1   0   262   14   0.0   -4.893   15.038   -12.03
508   1   0   263   1   0.0   -3.029   16.436   -16.785
509   1   0   263   5   1.0   0.298   18.0   -18.105
510   1   0   264   1   0.0   -6.432   15.173   -17.848
511   1   0   264   6   0.0   -9.437   14.244   -17.888
512   1   0   265   1   0.0   -5.948   14.309   -21.505
513   1   0   265   11   0.0   -5.214   12.848   -23.475
514   1   0   266   1   0.0   -8.359   17.069   -22.712
515   1   0   266   9   0.0   -7.996   18.685   -21.678
516   1   0   267   1   0.0   -7.942   15.579   -26.231
517   1   0   267   11   0.0   -6.598   15.492   -28.371
518   1   0   268   1   0.0   -10.766   13.076   -25.273
519   1   0   268   4   1.0   -9.123   9.047   -23.875
520   1   0   269   1   0.0   -13.744   15.449   -24.616
521   1   0   269   12   0.0   -14.704   16.78   -21.548
522   1   0   270   1   0.0   -14.138   17.078   -28.117
523   1   0   270   16   0.0   -13.139   19.377   -28.941
524   1   0   271   1   0.0   -15.413   13.972   -30.096
525   1   0   271   8   -1.0   -13.014   13.059   -32.369
526   1   0   272   1   0.0   -18.366   12.744   -27.898
527   1   0   272   4   1.0   -18.677   8.631   -25.539
528   1   0   273   1   0.0   -20.734   15.788   -27.853
529   1   0   273   9   0.0   -20.141   17.088   -26.534
530   1   0   274   2   0.0   -22.224   14.56   -31.147
531   1   0   275   1   0.0   -25.564   12.644   -30.716
532   1   0   275   4   1.0   -24.71   9.904   -34.299
533   1   0   276   1   0.0   -28.845   12.936   -28.684
534   1   0   276   18   0.0   -30.481   10.14   -29.663
535   1   0   277   2   0.0   -30.464   15.462   -26.336
536   1   0   278   2   0.0   -33.034   18.215   -27.13
537   1   0   279   1   0.0   -36.422   18.695   -28.256
538   1   0   279   11   0.0   -37.728   20.795   -28.694
539   1   0   280   1   0.0   -39.727   16.651   -27.991
540   1   0   280   14   0.0   -39.228   16.651   -26.21
541   1   0   281   2   0.0   -42.842   18.062   -29.781
542   1   0   282   2   0.0   -44.634   19.217   -31.973
543   1   0   283   1   0.0   -46.775   20.752   -34.824
544   1   0   283   18   0.0   -49.233   20.04   -32.534